+ 1.00023 /NodeList/1/DeviceList/0/$ns3::PointToPointNetDevice/TxQueue/Enqueue ns3::PppHeader (Point-to-Point Protocol: IP (0x0021)) ns3::Ipv4Header (tos 0xb8 DSCP EF ECN Not-ECT ttl 64 id 0 protocol 17 offset (bytes) 0 flags [none] length: 1476 10.1.1.2 > 10.1.1.1) ns3::UdpHeader (length: 1456 49153 > 7) Payload (size=1448)
- 1.00023 /NodeList/1/DeviceList/0/$ns3::PointToPointNetDevice/TxQueue/Dequeue ns3::PppHeader (Point-to-Point Protocol: IP (0x0021)) ns3::Ipv4Header (tos 0xb8 DSCP EF ECN Not-ECT ttl 64 id 0 protocol 17 offset (bytes) 0 flags [none] length: 1476 10.1.1.2 > 10.1.1.1) ns3::UdpHeader (length: 1456 49153 > 7) Payload (size=1448)
r 1.00341 /NodeList/0/DeviceList/0/$ns3::PointToPointNetDevice/MacRx ns3::PppHeader (Point-to-Point Protocol: IP (0x0021)) ns3::Ipv4Header (tos 0xb8 DSCP EF ECN Not-ECT ttl 64 id 0 protocol 17 offset (bytes) 0 flags [none] length: 1476 10.1.1.2 > 10.1.1.1) ns3::UdpHeader (length: 1456 49153 > 7) Payload (size=1448)
